# vtk DataFile Version 2.0
Volume of Geometry Scanner
ASCII
DATASET STRUCTURED_POINTS
DIMENSIONS 50 50 35
ORIGIN -49 -49 -34
SPACING 5 5 5
POINT_DATA 87500
SCALARS volume_scalars float 1
LOOKUP_TABLE default
0.00120479 0.00120479 0.00120479 0.00120479 0.00120479 0.00120479 0.00120479 0.00120479 0.00120479 0.00120479 0.00120479 0.00120479 0.00120479 0.00120479 0.00120479 0.00120479 0.00120479 0.00120479 0.00120479 0.00120479 0.00120479 0.00120479 0.00120479 0.00120479 0.00120479 0.00120479 0.00120479 0.00120479 0.00120479 0.00120479 0.00120479 0.00120479 0.00120479 0.00120479 0.00120479 0.00120479 0.00120479 0.00120479 0.00120479 0.00120479 0.00120479 0.00120479 0.00120479 0.00120479 0.00120479 0.00120479 0.00120479 0.00120479 0.00120479 0.00120479 
0.00120479 0.00120479 0.00120479 0.00120479 0.00120479 0.00120479 0.00120479 0.00120479 0.00120479 0.00120479 0.00120479 0.00120479 0.00120479 0.00120479 0.00120479 0.00120479 0.00120479 0.00120479 0.00120479 0.00120479 0.00120479 0.00120479 0.00120479 0.00120479 0.00120479 0.00120479 0.00120479 0.00120479 0.00120479 0.00120479 0.00120479 0.00120479 0.00120479 0.00120479 0.00120479 0.00120479 0.00120479 0.00120479 0.00120479 0.00120479 0.00120479 0.00120479 0.00120479 0.00120479 0.00120479 0.00120479 0.00120479 0.00120479 0.00120479 0.00120479 
0.00120479 0.00120479 0.00120479 0.00120479 0.00120479 0.00120479 0.00120479 0.00120479 0.00120479 0.00120479 0.00120479 0.00120479 0.00120479 0.00120479 0.00120479 0.00120479 0.00120479 0.00120479 0.00120479 0.00120479 0.00120479 0.00120479 0.00120479 0.00120479 0.00120479 0.00120479 0.00120479 0.00120479 0.00120479 0.00120479 0.00120479 0.00120479 0.00120479 0.00120479 0.00120479 0.00120479 0.00120479 0.00120479 0.00120479 0.00120479 0.00120479 0.00120479 0.00120479 0.00120479 0.00120479 0.00120479 0.00120479 0.00120479 0.00120479 0.00120479 
0.00120479 0.00120479 0.00120479 0.00120479 0.00120479 0.00120479 0.00120479 0.00120479 0.00120479 0.00120479 0.52 0.00120479 0.00120479 0.00120479 0.00120479 0.00120479 0.00120479 0.00120479 0.00120479 0.00120479 0.00120479 0.00120479 0.00120479 0.00120479 0.00120479 0.00120479 0.00120479 0.00120479 0.00120479 0.00120479 0.00120479 0.00120479 0.00120479 0.00120479 0.00120479 0.00120479 0.00120479 0.00120479 0.00120479 0.00120479 0.00120479 0.58 0.00120479 0.00120479 0.00120479 0.00120479 0.00120479 0.00120479 0.00120479 0.00120479 
0.00120479 0.00120479 0.00120479 0.00120479 0.00120479 0.00120479 0.00120479 0.00120479 0.00120479 0.00120479 0.6 0.00120479 0.00120479 0.00120479 0.00120479 0.00120479 0.00120479 0.00120479 0.00120479 0.00120479 0.00120479 0.00120479 0.00120479 0.00120479 0.00120479 0.00120479 0.00120479 0.00120479 0.00120479 0.00120479 0.00120479 0.00120479 0.00120479 0.00120479 0.00120479 0.00120479 0.00120479 0.00120479 0.00120479 0.00120479 0.00120479 0.58 0.00120479 0.00120479 0.00120479 0.00120479 0.00120479 0.00120479 0.00120479 0.00120479 
0.00120479 0.00120479 0.00120479 0.00120479 0.00120479 0.00120479 0.00120479 0.00120479 0.00120479 0.00120479 0.00120479 0.00120479 0.00120479 0.00120479 0.00120479 0.00120479 0.00120479 0.00120479 0.00120479 0.00120479 0.00120479 0.00120479 0.00120479 0.00120479 0.00120479 0.00120479 0.00120479 0.00120479 0.00120479 0.00120479 0.00120479 0.00120479 0.00120479 0.00120479 0.00120479 0.00120479 0.00120479 0.00120479 0.00120479 0.00120479 0.00120479 0.00120479 0.00120479 0.00120479 0.00120479 0.00120479 0.00120479 0.00120479 0.00120479 0.00120479 
0.00120479 0.00120479 0.00120479 0.00120479 0.00120479 0.00120479 0.00120479 0.00120479 0.00120479 0.00120479 0.00120479 0.00120479 0.00120479 0.00120479 0.00120479 0.00120479 0.00120479 0.00120479 0.00120479 0.00120479 0.00120479 0.00120479 0.00120479 0.00120479 0.00120479 0.00120479 0.00120479 0.00120479 0.00120479 0.00120479 0.00120479 0.00120479 0.00120479 0.00120479 0.00120479 0.00120479 0.00120479 0.00120479 0.00120479 0.00120479 0.00120479 0.00120479 0.00120479 0.00120479 0.00120479 0.00120479 0.00120479 0.00120479 0.00120479 0.00120479 
0.00120479 0.00120479 0.00120479 0.00120479 0.00120479 0.00120479 0.00120479 0.00120479 0.00120479 0.00120479 0.00120479 0.00120479 0.00120479 0.00120479 0.00120479 0.00120479 0.00120479 0.00120479 0.00120479 0.00120479 0.00120479 0.00120479 0.00120479 0.00120479 0.00120479 0.00120479 0.00120479 0.00120479 0.00120479 0.00120479 0.00120479 0.00120479 0.00120479 0.00120479 0.00120479 0.00120479 0.00120479 0.00120479 0.00120479 0.00120479 0.00120479 0.00120479 0.00120479 0.00120479 0.00120479 0.00120479 0.00120479 0.00120479 0.00120479 0.00120479 
0.00120479 0.00120479 0.00120479 0.00120479 0.00120479 0.00120479 0.00120479 0.00120479 0.00120479 0.00120479 0.00120479 0.00120479 0.00120479 0.00120479 0.00120479 0.00120479 0.00120479 0.00120479 0.00120479 0.00120479 0.00120479 0.00120479 0.00120479 0.00120479 0.6 0.68 0.68 0.6 0.00120479 0.00120479 0.00120479 0.00120479 0.00120479 0.00120479 0.00120479 0.00120479 0.00120479 0.00120479 0.00120479 0.00120479 0.00120479 0.00120479 0.00120479 0.00120479 0.00120479 0.00120479 0.00120479 0.00120479 0.00120479 0.00120479 
0.00120479 0.00120479 0.00120479 0.00120479 0.00120479 0.00120479 0.00120479 0.00120479 0.00120479 0.00120479 0.00120479 0.00120479 0.00120479 0.00120479 0.00120479 0.00120479 0.00120479 0.00120479 0.00120479 0.00120479 0.82 0.96 0.98 0.98 0.98 0.98 0.98 0.96 0.98 0.98 0.94 0.78 0.00120479 0.00120479 0.00120479 0.00120479 0.00120479 0.00120479 0.00120479 0.00120479 0.00120479 0.00120479 0.00120479 0.00120479 0.00120479 0.00120479 0.00120479 0.00120479 0.00120479 0.00120479 
0.00120479 0.00120479 0.00120479 0.00120479 0.00120479 0.00120479 0.00120479 0.00120479 0.00120479 0.00120479 0.00120479 0.00120479 0.00120479 0.00120479 0.00120479 0.00120479 0.56 0.98 1 0.98 0.96 0.94 0.94 0.94 0.98 0.98 0.96 0.94 0.94 0.94 0.94 0.94 0.98 0.96 0.78 0.00120479 0.00120479 0.00120479 0.00120479 0.00120479 0.00120479 0.00120479 0.00120479 0.00120479 0.00120479 0.00120479 0.00120479 0.00120479 0.00120479 0.00120479 
0.00120479 0.00120479 0.00120479 0.00120479 0.00120479 0.00120479 0.00120479 0.00120479 0.00120479 0.00120479 0.00120479 0.00120479 0.00120479 0.00120479 0.00120479 0.00120479 1 0.92 0.92 0.94 0.94 0.96 1 1.04 1.04 1.06 1.02 1 0.98 0.98 0.96 0.94 0.94 0.92 0.92 0.96 0.00120479 0.00120479 0.00120479 0.00120479 0.00120479 0.00120479 0.00120479 0.00120479 0.00120479 0.00120479 0.00120479 0.00120479 0.00120479 0.00120479 
0.00120479 0.00120479 0.00120479 0.00120479 0.00120479 0.00120479 0.00120479 0.00120479 0.00120479 0.00120479 0.00120479 0.00120479 0.00120479 0.00120479 0.00120479 0.88 0.94 0.92 0.96 0.94 1 1.04 1.02 1.06 1.06 1.06 1.04 1.04 1.04 1.02 1 0.96 0.96 0.94 0.92 0.94 0.76 0.00120479 0.00120479 0.00120479 0.00120479 0.00120479 0.00120479 0.00120479 0.00120479 0.00120479 0.00120479 0.00120479 0.00120479 0.00120479 
0.00120479 0.00120479 0.00120479 0.00120479 0.00120479 0.00120479 0.00120479 0.00120479 0.00120479 0.00120479 0.00120479 0.00120479 0.00120479 0.00120479 0.00120479 0.98 0.9 0.94 0.94 1.02 1.06 1.06 1.06 1.06 1.04 1.02 1.04 1.04 1.06 1.04 1.02 1 0.96 0.94 0.94 0.92 0.96 0.00120479 0.00120479 0.00120479 0.00120479 0.00120479 0.00120479 0.00120479 0.00120479 0.00120479 0.00120479 0.00120479 0.00120479 0.00120479 
0.00120479 0.00120479 0.00120479 0.00120479 0.00120479 0.00120479 0.00120479 0.00120479 0.00120479 0.00120479 0.00120479 0.00120479 0.00120479 0.00120479 0.52 0.94 0.92 0.96 1 1.02 1.06 1.04 1.06 1.06 1.02 0.98 1.02 1.04 1.04 1.06 1.04 1.06 1.04 0.98 0.94 0.94 0.92 0.74 0.00120479 0.00120479 0.00120479 0.00120479 0.00120479 0.00120479 0.00120479 0.00120479 0.00120479 0.00120479 0.00120479 0.00120479 
0.00120479 0.00120479 0.00120479 0.00120479 0.00120479 0.00120479 0.00120479 0.00120479 0.00120479 0.00120479 0.00120479 0.00120479 0.00120479 0.00120479 0.9 0.92 0.92 1 1.06 1.04 1.04 1.02 1 1 0.98 0.98 1 0.98 1 1.04 1.04 1.04 1.04 1.04 1 0.94 0.92 0.96 0.00120479 0.00120479 0.00120479 0.00120479 0.00120479 0.00120479 0.00120479 0.00120479 0.00120479 0.00120479 0.00120479 0.00120479 
0.00120479 0.00120479 0.00120479 0.00120479 0.00120479 0.00120479 0.00120479 0.00120479 0.00120479 0.00120479 0.00120479 0.00120479 0.00120479 0.00120479 0.96 0.94 0.98 1.04 1.04 1.02 1.04 1 0.98 0.96 0.96 0.98 0.96 0.98 1.06 1.06 1.04 1.04 1.06 1.06 1.04 1 0.96 0.94 0.62 0.00120479 0.00120479 0.00120479 0.00120479 0.00120479 0.00120479 0.00120479 0.00120479 0.00120479 0.00120479 0.00120479 
0.00120479 0.00120479 0.00120479 0.00120479 0.00120479 0.00120479 0.00120479 0.00120479 0.00120479 0.00120479 0.00120479 0.00120479 0.00120479 0.84 0.92 0.96 1.02 1.04 1.06 1.06 1.04 1.02 1.04 1.02 0.98 1.02 0.98 1 1.04 1.06 1.04 1.06 1.06 1.04 1.04 1.04 0.96 0.94 0.88 0.00120479 0.00120479 0.00120479 0.00120479 0.00120479 0.00120479 0.00120479 0.00120479 0.00120479 0.00120479 0.00120479 
0.00120479 0.00120479 0.00120479 0.00120479 0.00120479 0.00120479 0.00120479 0.00120479 0.00120479 0.00120479 0.00120479 0.00120479 0.00120479 0.94 0.9 1.02 1 0.98 1.04 1.04 1 1.04 1.06 1.04 1.06 1.1 1 1 1.06 1.06 1.06 1.04 1.04 1.04 1.02 1.04 1.02 0.92 0.96 0.00120479 0.00120479 0.00120479 0.00120479 0.00120479 0.00120479 0.00120479 0.00120479 0.00120479 0.00120479 0.00120479 
0.00120479 0.00120479 0.00120479 0.00120479 0.00120479 0.00120479 0.00120479 0.00120479 0.00120479 0.00120479 0.00120479 0.00120479 0.00120479 0.92 0.94 1.02 1.02 0.98 1.04 1.02 1 1.04 1.06 1.04 1.08 1.12 1.04 1.02 1.04 1.04 1.04 1.04 1.02 1.02 1.04 1.02 1.04 0.96 0.96 0.00120479 0.00120479 0.00120479 0.00120479 0.00120479 0.00120479 0.00120479 0.00120479 0.00120479 0.00120479 0.00120479 
0.00120479 0.00120479 0.00120479 0.00120479 0.00120479 0.00120479 0.00120479 0.00120479 0.00120479 0.00120479 0.00120479 0.00120479 0.00120479 0.92 0.98 1.02 1.02 1 1 1 1.06 1.04 1.04 1.12 1.14 1.1 1.04 1.02 0.98 1.02 1.04 1.06 1.02 1.04 0.98 1.02 1.04 0.98 0.94 0.00120479 0.00120479 0.00120479 0.00120479 0.00120479 0.00120479 0.00120479 0.00120479 0.00120479 0.00120479 0.00120479 
0.00120479 0.00120479 0.00120479 0.00120479 0.00120479 0.00120479 0.00120479 0.00120479 0.00120479 0.00120479 0.00120479 0.00120479 0.64 0.94 0.98 1 1.02 0.98 0.94 1.02 1.08 1.04 1.24 1.58 1.3 1.08 1.1 1.22 1.22 1.08 1.02 1.06 1.02 1.02 1 1.02 1.04 1 0.96 0.84 0.82 0.00120479 0.00120479 0.00120479 0.00120479 0.00120479 0.00120479 0.00120479 0.00120479 0.00120479 
0.00120479 0.00120479 0.00120479 0.00120479 0.00120479 0.00120479 0.00120479 0.00120479 0.00120479 0.00120479 0.00120479 0.00120479 0.74 0.96 1 0.98 0.96 0.96 0.98 1.04 1.08 1.44 1.7 1.42 1.04 1.04 1.04 1.08 1.34 1.36 1.2 1.1 1.06 0.98 0.98 1.02 1.04 1.02 0.98 0.9 0.74 0.00120479 0.00120479 0.00120479 0.00120479 0.00120479 0.00120479 0.00120479 0.00120479 0.00120479 
0.00120479 0.00120479 0.00120479 0.00120479 0.00120479 0.00120479 0.00120479 0.00120479 0.00120479 0.00120479 0.00120479 0.00120479 0.92 0.94 0.98 0.92 0.92 0.94 1 1.04 1.16 1.72 1.68 1.08 1.02 1.04 1.04 1.02 1.12 1.72 1.66 1.16 1.06 1.02 0.98 1.08 1.1 0.98 0.96 0.74 0.98 0.00120479 0.00120479 0.00120479 0.00120479 0.00120479 0.00120479 0.00120479 0.00120479 0.00120479 
0.00120479 0.00120479 0.00120479 0.00120479 0.00120479 0.00120479 0.00120479 0.00120479 0.00120479 0.00120479 0.00120479 0.00120479 0.96 0.92 0.94 0.9 0.94 0.94 1.02 1.06 1.08 1.2 1.12 1.04 1.02 1.04 1.04 1.04 1.06 1.42 1.56 1.24 1.08 1.06 1.02 1.08 1.1 0.92 0.94 0.96 1 0.76 0.00120479 0.00120479 0.00120479 0.00120479 0.00120479 0.00120479 0.00120479 0.00120479 
0.00120479 0.00120479 0.00120479 0.00120479 0.00120479 0.00120479 0.00120479 0.00120479 0.00120479 0.00120479 0.00120479 0.98 0.96 0.94 0.92 0.96 0.98 0.98 1 1.06 1.06 1.2 1.4 1.2 1.1 1.2 1.26 1.14 1.22 1.68 1.64 1.14 1.1 1.04 1.04 1 0.92 0.9 0.9 1 1.04 0.88 0.00120479 0.00120479 0.00120479 0.00120479 0.00120479 0.00120479 0.00120479 0.00120479 
0.00120479 0.00120479 0.00120479 0.00120479 0.00120479 0.00120479 0.00120479 0.00120479 0.00120479 0.00120479 0.00120479 0.96 0.94 0.92 0.9 0.9 0.94 1 0.98 1.06 1.08 1.62 1.6 1.72 1.74 1.66 1.62 1.7 1.7 1.66 1.74 1.1 1.08 1.02 1.04 0.94 0.88 0.9 0.9 0.98 1 0.9 0.00120479 0.00120479 0.00120479 0.00120479 0.00120479 0.00120479 0.00120479 0.00120479 
0.00120479 0.00120479 0.00120479 0.00120479 0.00120479 0.00120479 0.00120479 0.00120479 0.00120479 0.00120479 0.00120479 0.96 0.94 0.9 0.92 0.88 0.9 1 0.96 1.04 1.1 1.54 1.56 1.78 1.7 1.52 1.56 1.72 1.56 1.46 1.52 1.08 1.06 1 0.98 0.92 0.86 0.86 0.96 0.98 0.98 0.88 0.00120479 0.00120479 0.00120479 0.00120479 0.00120479 0.00120479 0.00120479 0.00120479 
0.00120479 0.00120479 0.00120479 0.00120479 0.00120479 0.00120479 0.00120479 0.00120479 0.00120479 0.00120479 0.00120479 0.96 0.96 0.92 0.9 0.88 0.88 0.92 0.98 1.04 1.04 1.24 1.56 1.52 1.4 1.54 1.54 1.22 1.08 1.12 1.12 1.1 1.08 1.52 1 1.02 0.94 0.94 0.98 0.98 0.98 0.78 0.00120479 0.00120479 0.00120479 0.00120479 0.00120479 0.00120479 0.00120479 0.00120479 
0.00120479 0.00120479 0.00120479 0.00120479 0.00120479 0.00120479 0.00120479 0.00120479 0.00120479 0.00120479 0.00120479 0.96 0.96 0.94 0.88 1 1.04 0.92 1.06 1.08 1.04 1.02 1.04 1.04 1.06 1.06 1.08 1.1 1.06 1.1 1.04 1.08 1.04 1.08 1 1.62 1.38 0.94 0.98 0.98 0.98 0.6 0.00120479 0.00120479 0.00120479 0.00120479 0.00120479 0.00120479 0.00120479 0.00120479 
0.00120479 0.00120479 0.00120479 0.00120479 0.00120479 0.00120479 0.00120479 0.00120479 0.00120479 0.00120479 0.00120479 0.82 0.98 0.98 0.9 1.42 1.54 0.94 1.08 1.14 1.02 1.02 1.04 1.04 0.62 0.14 0.1 0.72 1.06 1.06 1.02 1.04 1.04 1.04 0.92 1.5 1.44 1.04 0.98 0.98 1 0.00120479 0.00120479 0.00120479 0.00120479 0.00120479 0.00120479 0.00120479 0.00120479 0.00120479 
0.00120479 0.00120479 0.00120479 0.00120479 0.00120479 0.00120479 0.00120479 0.00120479 0.00120479 0.00120479 0.00120479 0.74 0.98 0.98 1.04 1.28 1.48 0.94 0.96 1 0.96 0.98 1.02 0.98 0.12 0.04 0.04 0.12 1.02 1.02 1 1.08 1.08 1.06 1.02 1.72 1.16 1.08 1 0.98 1 0.00120479 0.00120479 0.00120479 0.00120479 0.00120479 0.00120479 0.00120479 0.00120479 0.00120479 
0.00120479 0.00120479 0.00120479 0.00120479 0.00120479 0.00120479 0.00120479 0.00120479 0.00120479 0.00120479 0.00120479 0.00120479 0.96 1.02 1.1 1.1 1.56 1.1 0.88 0.98 1.02 1.02 0.98 0.86 0.22 0.76 0.6 0.08 0.96 1 1.04 1.08 1.06 1.14 1.52 1.7 1.08 1.1 1.02 0.98 0.96 0.00120479 0.00120479 0.00120479 0.00120479 0.00120479 0.00120479 0.00120479 0.00120479 0.00120479 
0.00120479 0.00120479 0.00120479 0.00120479 0.00120479 0.00120479 0.00120479 0.00120479 0.00120479 0.00120479 0.00120479 0.00120479 0.92 1.02 1.12 1.1 1.64 1.54 1.24 0.96 1.04 1.04 0.92 1.04 1.02 1.02 1 0.82 1.08 1 1.1 1.08 1.02 1.46 1.4 1.48 1.1 1.08 1.02 0.98 0.9 0.00120479 0.00120479 0.00120479 0.00120479 0.00120479 0.00120479 0.00120479 0.00120479 0.00120479 
0.00120479 0.00120479 0.00120479 0.00120479 0.00120479 0.00120479 0.00120479 0.00120479 0.00120479 0.00120479 0.00120479 0.00120479 0.86 0.92 1.04 1.1 1.42 1.66 1.76 1.12 0.96 1 0.92 1.1 1.06 0.88 0.88 1.02 1.1 1.02 1.08 1.08 1.04 1.52 1.76 1.38 1.1 1.1 1.02 1.02 0.68 0.00120479 0.00120479 0.00120479 0.00120479 0.00120479 0.00120479 0.00120479 0.00120479 0.00120479 
0.00120479 0.00120479 0.00120479 0.00120479 0.00120479 0.00120479 0.00120479 0.00120479 0.00120479 0.00120479 0.00120479 0.00120479 0.82 0.94 1 1 1.18 2.02 1.88 1.26 0.86 0.9 0.98 1.08 1.06 1.02 0.66 0.8 1.06 1.04 1.08 1.08 1.02 0.98 2.02 1.26 1.12 1.12 1.02 0.96 0.00120479 0.00120479 0.00120479 0.00120479 0.00120479 0.00120479 0.00120479 0.00120479 0.00120479 0.00120479 
0.00120479 0.00120479 0.00120479 0.00120479 0.00120479 0.00120479 0.00120479 0.00120479 0.00120479 0.00120479 0.00120479 0.00120479 0.58 0.96 1.04 1.08 1.02 1.56 1.2 0.82 0.78 0.82 1.02 1.04 1.06 1.1 1.08 1.12 1.1 1.02 1.08 1.22 1.06 0.76 1.24 1.14 1.1 1 0.84 0.78 0.00120479 0.00120479 0.00120479 0.00120479 0.00120479 0.00120479 0.00120479 0.00120479 0.00120479 0.00120479 
0.00120479 0.00120479 0.00120479 0.00120479 0.00120479 0.00120479 0.00120479 0.00120479 0.00120479 0.00120479 0.00120479 0.00120479 0.00120479 1.04 0.96 0.94 1.1 1.16 0.98 0.8 1.08 0.9 0.92 1.04 1.1 1.08 1.08 1.1 1.08 0.96 1.06 1.22 0.82 1.3 1.22 0.96 0.78 0.78 0.92 0.8 0.00120479 0.00120479 0.00120479 0.00120479 0.00120479 0.00120479 0.00120479 0.00120479 0.00120479 0.00120479 
0.00120479 0.00120479 0.00120479 0.00120479 0.00120479 0.00120479 0.00120479 0.00120479 0.00120479 0.00120479 0.00120479 0.00120479 0.00120479 0.9 1.04 1.1 1.12 1.02 1.3 1.34 1.82 1.02 0.92 1.1 1.12 1.16 1.16 1.12 1.16 1.2 1.28 1.7 1.32 0.96 0.64 1 1.1 1.1 1.1 0.00120479 0.00120479 0.00120479 0.00120479 0.00120479 0.00120479 0.00120479 0.00120479 0.00120479 0.00120479 0.00120479 
0.00120479 0.00120479 0.00120479 0.00120479 0.00120479 0.00120479 0.00120479 0.00120479 0.00120479 0.00120479 0.00120479 0.00120479 0.00120479 0.00120479 1 0.98 0.98 1.06 1.14 1.48 2.16 1.98 1.36 1.18 1.16 1.2 1.16 1.22 1.24 1.16 1.68 2.08 1.7 1.18 1.16 1.12 1.04 1.02 0.96 0.00120479 0.00120479 0.00120479 0.00120479 0.00120479 0.00120479 0.00120479 0.00120479 0.00120479 0.00120479 0.00120479 
0.00120479 0.00120479 0.00120479 0.00120479 0.00120479 0.00120479 0.00120479 0.00120479 0.00120479 0.00120479 0.00120479 0.00120479 0.00120479 0.00120479 1.02 1.1 1.08 1.14 1.08 1.12 1.38 1.98 1.98 1.64 1.14 0.98 0.96 0.96 1 1.52 2.08 1.54 1.32 0.92 1.02 1.02 0.98 1.04 0.00120479 0.00120479 0.00120479 0.00120479 0.00120479 0.00120479 0.00120479 0.00120479 0.00120479 0.00120479 0.00120479 0.00120479 
0.00120479 0.00120479 0.00120479 0.00120479 0.00120479 0.00120479 0.00120479 0.00120479 0.00120479 0.00120479 0.00120479 0.00120479 0.00120479 0.00120479 0.00120479 1.14 1.16 1.22 1.28 1.54 1.88 1.94 1.8 1.38 1.36 1.08 1.02 1.18 1.28 1.64 1.86 1.82 1.32 1.18 1.08 1.02 1.04 0.76 0.00120479 0.00120479 0.00120479 0.00120479 0.00120479 0.00120479 0.00120479 0.00120479 0.00120479 0.00120479 0.00120479 0.00120479 
0.00120479 0.00120479 0.00120479 0.00120479 0.00120479 0.00120479 0.00120479 0.00120479 0.00120479 0.00120479 0.00120479 0.00120479 0.00120479 0.00120479 0.00120479 0.8 1.18 1.28 1.64 1.98 2.08 2.18 2.06 1.74 1.56 1.66 1.54 1.42 1.34 1.86 1.98 2.02 1.66 1.5 1.24 1.16 0.88 0.00120479 0.00120479 0.00120479 0.00120479 0.00120479 0.00120479 0.00120479 0.00120479 0.00120479 0.00120479 0.00120479 0.00120479 0.00120479 
0.00120479 0.00120479 0.00120479 0.00120479 0.00120479 0.00120479 0.00120479 0.00120479 0.00120479 0.00120479 0.00120479 0.00120479 0.00120479 0.00120479 0.00120479 0.00120479 0.58 0.98 1.02 1.2 1.84 2.1 2.02 1.66 1.24 1.16 1.2 1.28 1.38 1.96 1.96 1.96 1.54 1.36 1.26 1.08 0.00120479 0.00120479 0.00120479 0.00120479 0.00120479 0.00120479 0.00120479 0.00120479 0.00120479 0.00120479 0.00120479 0.00120479 0.00120479 0.00120479 
0.00120479 0.00120479 0.00120479 0.00120479 0.00120479 0.00120479 0.00120479 0.00120479 0.00120479 0.00120479 0.00120479 0.00120479 0.00120479 0.00120479 0.00120479 0.00120479 0.00120479 0.00120479 0.98 1.2 1.46 1.56 1.68 1.88 1.68 1.66 1.66 1.7 1.76 2.1 1.94 1.04 0.96 0.86 0.52 0.00120479 0.00120479 0.00120479 0.00120479 0.00120479 0.00120479 0.00120479 0.00120479 0.00120479 0.00120479 0.00120479 0.00120479 0.00120479 0.00120479 0.00120479 
0.00120479 0.00120479 0.00120479 0.00120479 0.00120479 0.00120479 0.00120479 0.00120479 0.00120479 0.00120479 0.00120479 0.00120479 0.00120479 0.00120479 0.00120479 0.00120479 0.00120479 0.00120479 0.86 1.18 1.34 0.86 1.36 1.6 1.42 1.42 1.46 1.48 1.6 1.76 1.38 1.34 1.04 0.58 0.00120479 0.00120479 0.00120479 0.00120479 0.00120479 0.00120479 0.00120479 0.00120479 0.00120479 0.00120479 0.00120479 0.00120479 0.00120479 0.00120479 0.00120479 0.00120479 
0.00120479 0.00120479 0.00120479 0.00120479 0.00120479 0.00120479 0.00120479 0.00120479 0.00120479 0.00120479 0.00120479 0.00120479 0.00120479 0.00120479 0.00120479 0.00120479 0.00120479 0.00120479 0.00120479 0.9 1.2 0.9 1.1 1.84 1.62 1.6 1.44 1.58 1.78 1.5 1.12 1.16 0.56 0.00120479 0.00120479 0.00120479 0.00120479 0.00120479 0.00120479 0.00120479 0.00120479 0.00120479 0.00120479 0.00120479 0.00120479 0.00120479 0.00120479 0.00120479 0.00120479 0.00120479 
0.00120479 0.00120479 0.00120479 0.00120479 0.00120479 0.00120479 0.00120479 0.00120479 0.00120479 0.00120479 0.00120479 0.00120479 0.00120479 0.00120479 0.00120479 0.00120479 0.00120479 0.00120479 0.00120479 0.00120479 0.7 0.98 0.64 1.16 1.72 2.14 2 1.96 1.44 0.94 1.1 0.82 0.00120479 0.00120479 0.00120479 0.00120479 0.00120479 0.00120479 0.00120479 0.00120479 0.00120479 0.00120479 0.00120479 0.00120479 0.00120479 0.00120479 0.00120479 0.00120479 0.00120479 0.00120479 
0.00120479 0.00120479 0.00120479 0.00120479 0.00120479 0.00120479 0.00120479 0.00120479 0.00120479 0.00120479 0.00120479 0.00120479 0.00120479 0.00120479 0.00120479 0.00120479 0.00120479 0.00120479 0.00120479 0.00120479 0.00120479 0.00120479 0.7 0.66 0.78 1.16 1.24 0.9 0.68 1.02 0.82 0.00120479 0.00120479 0.00120479 0.00120479 0.00120479 0.00120479 0.00120479 0.00120479 0.00120479 0.00120479 0.00120479 0.00120479 0.00120479 0.00120479 0.00120479 0.00120479 0.00120479 0.00120479 0.00120479 
0.00120479 0.00120479 0.00120479 0.00120479 0.00120479 0.00120479 0.00120479 0.00120479 0.00120479 0.00120479 0.00120479 0.00120479 0.00120479 0.00120479 0.00120479 0.00120479 0.00120479 0.00120479 0.00120479 0.00120479 0.00120479 0.00120479 0.00120479 0.00120479 0.6 0.92 0.92 0.7 0.68 0.00120479 0.00120479 0.00120479 0.00120479 0.00120479 0.00120479 0.00120479 0.00120479 0.00120479 0.00120479 0.00120479 0.00120479 0.00120479 0.00120479 0.00120479 0.00120479 0.00120479 0.00120479 0.00120479 0.00120479 0.00120479 
0.00120479 0.00120479 0.00120479 0.00120479 0.00120479 0.00120479 0.00120479 0.00120479 0.00120479 0.00120479 0.00120479 0.00120479 0.00120479 0.00120479 0.00120479 0.00120479 0.00120479 0.00120479 0.00120479 0.00120479 0.00120479 0.00120479 0.00120479 0.00120479 0.00120479 0.00120479 0.00120479 0.00120479 0.00120479 0.00120479 0.00120479 0.00120479 0.00120479 0.00120479 0.00120479 0.00120479 0.00120479 0.00120479 0.00120479 0.00120479 0.00120479 0.00120479 0.00120479 0.00120479 0.00120479 0.00120479 0.00120479 0.00120479 0.00120479 0.00120479 
0.00120479 0.00120479 0.00120479 0.00120479 0.00120479 0.00120479 0.00120479 0.00120479 0.00120479 0.00120479 0.00120479 0.00120479 0.00120479 0.00120479 0.00120479 0.00120479 0.00120479 0.00120479 0.00120479 0.00120479 0.00120479 0.00120479 0.00120479 0.00120479 0.00120479 0.00120479 0.00120479 0.00120479 0.00120479 0.00120479 0.00120479 0.00120479 0.00120479 0.00120479 0.00120479 0.00120479 0.00120479 0.00120479 0.00120479 0.00120479 0.00120479 0.00120479 0.00120479 0.00120479 0.00120479 0.00120479 0.00120479 0.00120479 0.00120479 0.00120479 
0.00120479 0.00120479 0.00120479 0.00120479 0.00120479 0.00120479 0.00120479 0.00120479 0.00120479 0.00120479 0.00120479 0.00120479 0.00120479 0.00120479 0.00120479 0.00120479 0.00120479 0.00120479 0.00120479 0.00120479 0.00120479 0.00120479 0.00120479 0.00120479 0.00120479 0.00120479 0.00120479 0.00120479 0.00120479 0.00120479 0.00120479 0.00120479 0.00120479 0.00120479 0.00120479 0.00120479 0.00120479 0.00120479 0.00120479 0.00120479 0.00120479 0.00120479 0.00120479 0.00120479 0.00120479 0.00120479 0.00120479 0.00120479 0.00120479 0.00120479 
0.00120479 0.00120479 0.00120479 0.00120479 0.00120479 0.00120479 0.00120479 0.00120479 0.00120479 0.00120479 0.00120479 0.00120479 0.00120479 0.00120479 0.00120479 0.00120479 0.00120479 0.00120479 0.00120479 0.00120479 0.00120479 0.00120479 0.00120479 0.00120479 0.00120479 0.00120479 0.00120479 0.00120479 0.00120479 0.00120479 0.00120479 0.00120479 0.00120479 0.00120479 0.00120479 0.00120479 0.00120479 0.00120479 0.00120479 0.00120479 0.00120479 0.58 0.00120479 0.00120479 0.00120479 0.00120479 0.00120479 0.00120479 0.00120479 0.00120479 
0.00120479 0.00120479 0.00120479 0.00120479 0.00120479 0.00120479 0.00120479 0.00120479 0.00120479 0.00120479 0.64 0.00120479 0.00120479 0.00120479 0.00120479 0.00120479 0.00120479 0.00120479 0.00120479 0.00120479 0.00120479 0.00120479 0.00120479 0.00120479 0.00120479 0.00120479 0.00120479 0.00120479 0.00120479 0.00120479 0.00120479 0.00120479 0.00120479 0.00120479 0.00120479 0.00120479 0.00120479 0.00120479 0.00120479 0.00120479 0.00120479 0.6 0.00120479 0.00120479 0.00120479 0.00120479 0.00120479 0.00120479 0.00120479 0.00120479 
0.00120479 0.00120479 0.00120479 0.00120479 0.00120479 0.00120479 0.00120479 0.00120479 0.00120479 0.00120479 0.00120479 0.00120479 0.00120479 0.00120479 0.00120479 0.00120479 0.00120479 0.00120479 0.00120479 0.00120479 0.00120479 0.00120479 0.00120479 0.00120479 0.00120479 0.00120479 0.00120479 0.00120479 0.00120479 0.00120479 0.00120479 0.00120479 0.00120479 0.00120479 0.00120479 0.00120479 0.00120479 0.00120479 0.00120479 0.00120479 0.00120479 0.54 0.00120479 0.00120479 0.00120479 0.00120479 0.00120479 0.00120479 0.00120479 0.00120479 
0.00120479 0.00120479 0.00120479 0.00120479 0.00120479 0.00120479 0.00120479 0.00120479 0.00120479 0.00120479 0.00120479 0.00120479 0.00120479 0.00120479 0.00120479 0.00120479 0.00120479 0.00120479 0.00120479 0.00120479 0.00120479 0.00120479 0.00120479 0.00120479 0.00120479 0.00120479 0.00120479 0.00120479 0.00120479 0.00120479 0.00120479 0.00120479 0.00120479 0.00120479 0.00120479 0.00120479 0.00120479 0.00120479 0.00120479 0.00120479 0.00120479 0.00120479 0.00120479 0.00120479 0.00120479 0.00120479 0.00120479 0.00120479 0.00120479 0.00120479 
0.00120479 0.00120479 0.00120479 0.00120479 0.00120479 0.00120479 0.00120479 0.00120479 0.00120479 0.00120479 0.00120479 0.00120479 0.00120479 0.00120479 0.00120479 0.00120479 0.00120479 0.00120479 0.00120479 0.00120479 0.00120479 0.00120479 0.00120479 0.00120479 0.00120479 0.00120479 0.00120479 0.00120479 0.00120479 0.00120479 0.00120479 0.00120479 0.00120479 0.00120479 0.00120479 0.00120479 0.00120479 0.00120479 0.00120479 0.00120479 0.00120479 0.00120479 0.00120479 0.00120479 0.00120479 0.00120479 0.00120479 0.00120479 0.00120479 0.00120479 
0.00120479 0.00120479 0.00120479 0.00120479 0.00120479 0.00120479 0.00120479 0.00120479 0.00120479 0.00120479 0.00120479 0.00120479 0.00120479 0.00120479 0.00120479 0.00120479 0.00120479 0.00120479 0.00120479 0.00120479 0.00120479 0.7 0.84 0.92 0.96 0.98 0.98 0.96 0.88 0.74 0.54 0.00120479 0.00120479 0.00120479 0.00120479 0.00120479 0.00120479 0.00120479 0.00120479 0.00120479 0.00120479 0.00120479 0.00120479 0.00120479 0.00120479 0.00120479 0.00120479 0.00120479 0.00120479 0.00120479 
0.00120479 0.00120479 0.00120479 0.00120479 0.00120479 0.00120479 0.00120479 0.00120479 0.00120479 0.00120479 0.00120479 0.00120479 0.00120479 0.00120479 0.00120479 0.00120479 0.00120479 0.00120479 0.66 0.88 0.96 0.94 0.94 0.94 0.96 0.98 0.96 0.94 0.94 0.94 0.96 0.96 0.84 0.56 0.00120479 0.00120479 0.00120479 0.00120479 0.00120479 0.00120479 0.00120479 0.00120479 0.00120479 0.00120479 0.00120479 0.00120479 0.00120479 0.00120479 0.00120479 0.00120479 
0.00120479 0.00120479 0.00120479 0.00120479 0.00120479 0.00120479 0.00120479 0.00120479 0.00120479 0.00120479 0.00120479 0.00120479 0.00120479 0.00120479 0.00120479 0.00120479 0.82 0.98 0.94 0.94 0.94 0.94 0.94 0.98 1.04 1.04 1.02 0.96 0.94 0.94 0.94 0.92 0.92 0.94 0.94 0.00120479 0.00120479 0.00120479 0.00120479 0.00120479 0.00120479 0.00120479 0.00120479 0.00120479 0.00120479 0.00120479 0.00120479 0.00120479 0.00120479 0.00120479 
0.00120479 0.00120479 0.00120479 0.00120479 0.00120479 0.00120479 0.00120479 0.00120479 0.00120479 0.00120479 0.00120479 0.00120479 0.00120479 0.00120479 0.00120479 0.68 0.96 0.92 0.94 0.94 0.96 0.98 1 1.04 1.06 1.06 1.06 1.04 1 0.96 0.96 0.96 0.94 0.94 0.92 0.96 0.00120479 0.00120479 0.00120479 0.00120479 0.00120479 0.00120479 0.00120479 0.00120479 0.00120479 0.00120479 0.00120479 0.00120479 0.00120479 0.00120479 
0.00120479 0.00120479 0.00120479 0.00120479 0.00120479 0.00120479 0.00120479 0.00120479 0.00120479 0.00120479 0.00120479 0.00120479 0.00120479 0.00120479 0.00120479 1 0.92 0.94 0.96 0.98 1.02 1.02 1.04 1.06 1.06 1.04 1.04 1.04 1.04 1.04 1 0.98 0.96 0.94 0.94 0.92 0.92 0.00120479 0.00120479 0.00120479 0.00120479 0.00120479 0.00120479 0.00120479 0.00120479 0.00120479 0.00120479 0.00120479 0.00120479 0.00120479 
0.00120479 0.00120479 0.00120479 0.00120479 0.00120479 0.00120479 0.00120479 0.00120479 0.00120479 0.00120479 0.00120479 0.00120479 0.00120479 0.00120479 0.00120479 0.96 0.94 0.94 0.96 1.04 1.04 1.04 1.04 1.04 1.04 1.02 1.04 1.04 1.04 1.04 1.04 1 0.98 0.96 0.94 0.94 0.94 0.54 0.00120479 0.00120479 0.00120479 0.00120479 0.00120479 0.00120479 0.00120479 0.00120479 0.00120479 0.00120479 0.00120479 0.00120479 
0.00120479 0.00120479 0.00120479 0.00120479 0.00120479 0.00120479 0.00120479 0.00120479 0.00120479 0.00120479 0.00120479 0.00120479 0.00120479 0.00120479 0.78 0.94 0.94 0.96 1 1.04 1.04 1.04 1.04 1.02 1.04 1.22 1.04 1 1.02 1.02 1.04 1.04 1.04 1.02 0.96 0.94 0.92 0.94 0.00120479 0.00120479 0.00120479 0.00120479 0.00120479 0.00120479 0.00120479 0.00120479 0.00120479 0.00120479 0.00120479 0.00120479 
0.00120479 0.00120479 0.00120479 0.00120479 0.00120479 0.00120479 0.00120479 0.00120479 0.00120479 0.00120479 0.00120479 0.00120479 0.00120479 0.00120479 0.98 0.94 0.96 1.02 1.04 1.04 1.04 1.02 0.98 0.96 1.1 1.48 1.04 0.96 1.02 1.04 1.1 1.04 1.02 1.04 1.02 0.96 0.94 0.94 0.54 0.00120479 0.00120479 0.00120479 0.00120479 0.00120479 0.00120479 0.00120479 0.00120479 0.00120479 0.00120479 0.00120479 
0.00120479 0.00120479 0.00120479 0.00120479 0.00120479 0.00120479 0.00120479 0.00120479 0.00120479 0.00120479 0.00120479 0.00120479 0.00120479 0.7 0.96 0.96 1 1.04 1.04 1.02 1.04 1.04 1.04 1.04 1.22 1.56 1.08 1.04 1.1 1.14 1.18 1.08 1.06 1.04 1.04 1 0.96 0.92 0.9 0.00120479 0.00120479 0.00120479 0.00120479 0.00120479 0.00120479 0.00120479 0.00120479 0.00120479 0.00120479 0.00120479 